[
  {
    "element": "Berkelium, Bk",
    "component_percentage": 100,
    "properties": {
      "Physical": {
        "Density": {
          "value": [
            13.25,
            14.78
          ],
          "unit": "g/cc"
        },
        "Viscosity": {
          "value": null,
          "unit": "cP"
        },
        "Molecular Weight": {
          "value": null,
          "unit": "g/mol"
        },
        "Vapor Pressure": {
          "value": null,
          "unit": "bar"
        }
      },
      "Chemical": {
        "Atomic Mass": {
          "value": 247,
          "unit": null
        },
        "Atomic Number": {
          "value": 97,
          "unit": null
        },
        "Thermal Neutron Cross Section": {
          "value": null,
          "unit": "barns/atom"
        },
        "X-ray Absorption Edge": {
          "value": [
            0.09506,
            0.49131,
            0.50928,
            0.63667
          ],
          "unit": "Å"
        },
        "Critical Pressure": {
          "value": null,
          "unit": "bar"
        },
        "Critical Temperature": {
          "value": null,
          "unit": "°C"
        },
        "Critical Density": {
          "value": null,
          "unit": "g/cc"
        },
        "Critical Molar Volume": {
          "value": null,
          "unit": "cm³/mol"
        },
        "Electrode Potential": {
          "value": null,
          "unit": "V"
        },
        "Electronegativity": {
          "value": 1.3,
          "unit": null
        },
        "Ionic Radius": {
          "value": null,
          "unit": "Å"
        },
        "Electrochemical Equivalent": {
          "value": null,
          "unit": "g/A/h"
        }
      },
      "Mechanical": {
        "Hardness, Brinell": {
          "value": null,
          "unit": null
        },
        "Modulus of Elasticity": {
          "value": null,
          "unit": "GPa"
        },
        "Bulk Modulus": {
          "value": 52.0,
          "unit": "GPa"
        },
        "Poissons Ratio": {
          "value": null,
          "unit": null
        },
        "Shear Modulus": {
          "value": null,
          "unit": "GPa"
        }
      },
      "Electrical": {
        "Electrical Resistivity": {
          "value": null,
          "unit": "ohm-cm"
        },
        "Magnetic Susceptibility": {
          "value": null,
          "unit": null
        },
        "Critical Superconducting Temperature": {
          "value": null,
          "unit": "K"
        },
        "Dielectric Constant": {
          "value": null,
          "unit": null
        }
      },
      "Thermal": {
        "Heat of Fusion": {
          "value": null,
          "unit": "J/g"
        },
        "Heat of Vaporization": {
          "value": null,
          "unit": "J/g"
        },
        "CTE, linear": {
          "value": [
            10.8,
            17.8
          ],
          "unit": "µm/m-°C"
        },
        "Specific Heat Capacity": {
          "value": null,
          "unit": "J/g-°C"
        },
        "Thermal Conductivity": {
          "value": null,
          "unit": "W/m-K"
        },
        "Melting Point": {
          "value": 1050,
          "unit": "°C"
        },
        "Boiling Point": {
          "value": null,
          "unit": "°C"
        },
        "Heat of Formation": {
          "value": null,
          "unit": "kJ/mol"
        }
      },
      "Optical": {
        "Emissivity": {
          "value": null,
          "unit": "(0-1)"
        }
      }
    }
  },
  {
    "element": "Bismuth, Bi",
    "component_percentage": 100,
    "properties": {
      "Physical": {
        "Density": {
          "value": 9.80,
          "unit": "g/cc"
        },
        "Viscosity": {
          "value": null,
          "unit": "cP"
        },
        "Molecular Weight": {
          "value": null,
          "unit": "g/mol"
        },
        "Vapor Pressure": {
          "value": null,
          "unit": "bar"
        }
      },
      "Chemical": {
        "Atomic Mass": {
          "value": 208.9804,
          "unit": null
        },
        "Atomic Number": {
          "value": 83,
          "unit": null
        },
        "Thermal Neutron Cross Section": {
          "value": 0.032,
          "unit": "barns/atom"
        },
        "X-ray Absorption Edge": {
          "value": [
            0.13691,
            0.75649,
            0.7891,
            0.92459
          ],
          "unit": "Å"
        },
        "Critical Pressure": {
          "value": null,
          "unit": "bar"
        },
        "Critical Temperature": {
          "value": null,
          "unit": "°C"
        },
        "Critical Density": {
          "value": null,
          "unit": "g/cc"
        },
        "Critical Molar Volume": {
          "value": null,
          "unit": "cm³/mol"
        },
        "Electrode Potential": {
          "value": 0.20,
          "unit": "V"
        },
        "Electronegativity": {
          "value": 1.9,
          "unit": null
        },
        "Ionic Radius": {
          "value": [
            0.740,
            0.960,
            0.980
          ],
          "unit": "Å"
        },
        "Electrochemical Equivalent": {
          "value": 2.59,
          "unit": "g/A/h"
        }
      },
      "Mechanical": {
        "Hardness, Brinell": {
          "value": 7,
          "unit": null
        },
        "Modulus of Elasticity": {
          "value": 31.7,
          "unit": "GPa"
        },
        "Bulk Modulus": {
          "value": null,
          "unit": "GPa"
        },
        "Poissons Ratio": {
          "value": 0.33,
          "unit": null
        },
        "Shear Modulus": {
          "value": 11.9,
          "unit": "GPa"
        }
      },
      "Electrical": {
        "Electrical Resistivity": {
          "value": 0.000112,
          "unit": "ohm-cm"
        },
        "Magnetic Susceptibility": {
          "value": -0.00000134,
          "unit": null
        },
        "Critical Superconducting Temperature": {
          "value": [
            "2.60 - 6.17",
            "6.00 - 8.70",
            "6.55 - 7.25",
            "6.70 - 8.30",
            8.20,
            8.55
          ],
          "unit": "K"
        },
        "Dielectric Constant": {
          "value": null,
          "unit": null
        }
      },
      "Thermal": {
        "Heat of Fusion": {
          "value": 54.4,
          "unit": "J/g"
        },
        "Heat of Vaporization": {
          "value": 854,
          "unit": "J/g"
        },
        "CTE, linear": {
          "value": 13.3,
          "unit": "µm/m-°C"
        },
        "Specific Heat Capacity": {
          "value": 0.122,
          "unit": "J/g-°C"
        },
        "Thermal Conductivity": {
          "value": 10.0,
          "unit": "W/m-K"
        },
        "Melting Point": {
          "value": 271.3,
          "unit": "°C"
        },
        "Boiling Point": {
          "value": 2000,
          "unit": "°C"
        },
        "Heat of Formation": {
          "value": null,
          "unit": "kJ/mol"
        }
      },
      "Optical": {
        "Emissivity": {
          "value": 0.048,
          "unit": "(0-1)"
        }
      }
    }
  },
  {
    "element": "Bromine, Br",
    "component_percentage": 100,
    "properties": {
      "Physical": {
        "Density": {
          "value": 3.1028,
          "unit": "g/cc"
        },
        "Viscosity": {
          "value": 0.996,
          "unit": "cP"
        },
        "Molecular Weight": {
          "value": 159.808,
          "unit": "g/mol"
        },
        "Vapor Pressure": {
          "value": 0.231099,
          "unit": "bar"
        }
      },
      "Chemical": {
        "Atomic Mass": {
          "value": 79.904,
          "unit": null
        },
        "Atomic Number": {
          "value": 35,
          "unit": null
        },
        "Thermal Neutron Cross Section": {
          "value": null,
          "unit": "barns/atom"
        },
        "X-ray Absorption Edge": {
          "value": [
            0.91994,
            6.925,
            7.7523,
            7.9871
          ],
          "unit": "Å"
        },
        "Critical Pressure": {
          "value": 103.400,
          "unit": "bar"
        },
        "Critical Temperature": {
          "value": 315,
          "unit": "°C"
        },
        "Critical Density": {
          "value": 1.258,
          "unit": "g/cc"
        },
        "Critical Molar Volume": {
          "value": 127,
          "unit": "cm³/mol"
        },
        "Electrode Potential": {
          "value": null,
          "unit": "V"
        },
        "Electronegativity": {
          "value": 2.96,
          "unit": null
        },
        "Ionic Radius": {
          "value": [
            0.390,
            0.470,
            1.96
          ],
          "unit": "Å"
        },
        "Electrochemical Equivalent": {
          "value": null,
          "unit": "g/A/h"
        }
      },
      "Mechanical": {
        "Hardness, Brinell": {
          "value": null,
          "unit": null
        },
        "Modulus of Elasticity": {
          "value": null,
          "unit": "GPa"
        },
        "Bulk Modulus": {
          "value": null,
          "unit": "GPa"
        },
        "Poissons Ratio": {
          "value": null,
          "unit": null
        },
        "Shear Modulus": {
          "value": null,
          "unit": "GPa"
        }
      },
      "Electrical": {
        "Electrical Resistivity": {
          "value": null,
          "unit": "ohm-cm"
        },
        "Magnetic Susceptibility": {
          "value": null,
          "unit": null
        },
        "Critical Superconducting Temperature": {
          "value": null,
          "unit": "K"
        },
        "Dielectric Constant": {
          "value": 3.15,
          "unit": null
        }
      },
      "Thermal": {
        "Heat of Fusion": {
          "value": 65.83,
          "unit": "J/g"
        },
        "Heat of Vaporization": {
          "value": [
            187.5,
            193.4
          ],
          "unit": "J/g"
        },
        "CTE, linear": {
          "value": null,
          "unit": "µm/m-°C"
        },
        "Specific Heat Capacity": {
          "value": [
            0.226,
            0.229,
            0.4737
          ],
          "unit": "J/g-°C"
        },
        "Thermal Conductivity": {
          "value": 0.123,
          "unit": "W/m-K"
        },
        "Melting Point": {
          "value": -7.20,
          "unit": "°C"
        },
        "Boiling Point": {
          "value": 58.8,
          "unit": "°C"
        },
        "Heat of Formation": {
          "value": [
            0.000,
            30.9
          ],
          "unit": "kJ/mol"
        }
      },
      "Optical": {
        "Emissivity": {
          "value": null,
          "unit": "(0-1)"
        }
      }
    }
  }
]