{
  "material": "Hydrogen, H₂",
  "properties": {
    "physical": [
      {
        "property": "Density",
        "metric": "0.0000820 g/cc",
        "english": "0.00000296 lb/in³",
        "comments": "At standard conditions"
      },
      {
        "property": "Molecular Weight",
        "metric": "2.016 g/mol",
        "english": "2.016 g/mol",
        "comments": null
      }
    ],
    "chemical": [
      {
        "property": "Atomic Number",
        "metric": "1",
        "english": "1",
        "comments": "Per hydrogen atom"
      },
      {
        "property": "Atomic Mass",
        "metric": "1.008",
        "english": "1.008",
        "comments": "Per hydrogen atom"
      }
    ],
    "thermal": [
      {
        "property": "Melting Point",
        "metric": "-259.1 °C",
        "english": "-434.4 °F",
        "comments": "Triple point"
      },
      {
        "property": "Boiling Point",
        "metric": "-252.9 °C",
        "english": "-423.2 °F",
        "comments": "At 1 atm"
      },
      {
        "property": "Critical Temperature",
        "metric": "-240.0 °C",
        "english": "-400.0 °F",
        "comments": null
      },
      {
        "property": "Specific Heat Capacity",
        "metric": "14.3 J/g-°C",
        "english": "3.42 BTU/lb-°F",
        "comments": "At constant pressure"
      }
    ],
    "component_elements": [
      {
        "element": "Hydrogen, H",
        "metric": "100 %",
        "english": "100 %",
        "comments": null
      }
    ],
    "descriptive": {
      "state": "Gas at STP",
      "color": "Colorless",
      "odor": "Odorless"
    }
  }
}